# LAMMPS data file
8 atoms
2 atom types

0.00000 12.00000 xlo xhi
0.00000 12.00000 ylo yhi
0.00000 12.00000 zlo zhi

Masses

1     12.011 # C
2      1.008 # H

Atoms  # full

1 1 1 0.0 6.32017 4.43226 6.0
2 1 1 0.0 6.00942 5.68682 6.0
3 1 2 0.0 5.99673 3.9847 5.0835
4 1 2 0.0 5.8401 3.9459 6.82334
5 1 2 0.0 7.38096 4.32757 6.09317
6 1 2 0.0 4.94864 5.79151 5.90683
7 1 2 0.0 6.4895 6.17318 5.17667
8 1 2 0.0 6.33287 6.13438 6.9165
